# vtk DataFile Version 2.0
File written by itkLabeledPointSetFileWriter
ASCII
DATASET POLYDATA
POINTS 6 float
36 176 0
128 203 0
124 92 0
260 83 0
166 30 0
48 45 0
LINES 9 27
2 0 1
2 0 2
2 0 5
2 1 3
2 1 2
2 2 5
2 2 3
2 5 4
2 4 3
CELL_DATA 9
SCALARS cell_scalars int 1
LOOKUP_TABLE default
7
9
14
15
10
2
11
9
6


